 Gaussian 16, Revision A.03,
 Gaussian 16:  ES64L-G16RevA.03 25-Dec-2016

 --------------------------------
 # RHF/6-31G(d) Freq Pop=full Opt
 --------------------------------

 --------
 Benzen21
 --------
 Symbolic Z-matrix:
 Charge =  0 Multiplicity = 1

 SCF Done:  E(RHF) =  -230.858093208     A.U. after   12 cycles
 SCF Done:  E(RHF) =  -230.928600479     A.U. after   15 cycles
 SCF Done:  E(RHF) =  -231.058504083     A.U. after   16 cycles
 SCF Done:  E(RHF) =  -231.215246201     A.U. after   16 cycles
 SCF Done:  E(RHF) =  -231.240608910     A.U. after   23 cycles
 SCF Done:  E(RHF) =  -231.246559655     A.U. after   21 cycles
 SCF Done:  E(RHF) =  -231.261157330     A.U. after   18 cycles
 SCF Done:  E(RHF) =  -231.282568966     A.U. after   18 cycles
 SCF Done:  E(RHF) =  -231.341825918     A.U. after   16 cycles
 SCF Done:  E(RHF) =  -231.388767557     A.U. after   14 cycles
 SCF Done:  E(RHF) =  -231.831469013     A.U. after   12 cycles
 SCF Done:  E(RHF) =  -231.831680112     A.U. after   12 cycles
 SCF Done:  E(RHF) =  -231.831852242     A.U. after   10 cycles
 SCF Done:  E(RHF) =  -231.831856055     A.U. after   11 cycles
 SCF Done:  E(RHF) =  -231.831888639     A.U. after   10 cycles
 SCF Done:  E(RHF) =  -231.831894891     A.U. after    9 cycles
 SCF Done:  E(RHF) =  -231.831896656     A.U. after    8 cycles
 SCF Done:  E(RHF) =  -231.831897206     A.U. after    8 cycles
 SCF Done:  E(RHF) =  -231.831897528     A.U. after    8 cycles
 Optimization completed.
    -- Stationary point found.
 Normal termination of Gaussian 16 at Tue Oct 27 11:25:27 2020.

 -----------------------------------------------------------------
 #N Geom=AllCheck Guess=TCheck SCRF=Check GenChk RHF/6-31G(d) Freq
 -----------------------------------------------------------------

 Structure from the checkpoint file:  "/scratch/Gau-14250.chk"
 --------
 Benzen21
 --------
 Charge =  0 Multiplicity = 1

                         Standard orientation:
 ---------------------------------------------------------------------
 Center     Atomic      Atomic             Coordinates (Angstroms)
 Number     Number       Type             X           Y           Z
 ---------------------------------------------------------------------
      1          6           0        0.126219   -1.416960   -0.060016
      2          6           0       -1.187965   -0.733912    0.239977
      3          6           0       -1.195090    0.722299   -0.240254
      4          6           0        0.112164    1.417991    0.060439
      5          6           0        1.246668    0.736316    0.103868
      6          6           0        1.253894   -0.724119   -0.104066
      7          1           0       -1.363183    0.752974   -1.317282
      8          1           0       -1.356145   -0.765513    1.317017
      9          1           0        0.131795   -2.485842   -0.187835
     10          1           0       -2.011471   -1.275859   -0.214112
     11          1           0       -2.024010    1.255921    0.213890
     12          1           0        0.106868    2.486776    0.189046
     13          1           0        2.184283    1.234671    0.279141
     14          1           0        2.196530   -1.212822   -0.279552
 ---------------------------------------------------------------------

 SCF Done:  E(RHF) =  -231.831897528     A.U. after    1 cycles

 The electronic state is 1-A.
 Alpha  occ. eigenvalues --  -11.22236 -11.22201 -11.22165 -11.22136 -11.21895
 Alpha  occ. eigenvalues --  -11.21827  -1.12557  -1.00705  -1.00155  -0.84405
 Alpha  occ. eigenvalues --   -0.79718  -0.68380  -0.66889  -0.60694  -0.57990
 Alpha  occ. eigenvalues --   -0.57629  -0.53912  -0.51244  -0.47115  -0.44902
 Alpha  occ. eigenvalues --   -0.41776  -0.29907
 Alpha virt. eigenvalues --    0.13720   0.23890   0.25298   0.29000   0.30046
 Alpha virt. eigenvalues --    0.30463   0.32481   0.32555   0.34766   0.37195
 Alpha virt. eigenvalues --    0.40549   0.43681   0.44217   0.51974   0.59668

 Mulliken charges:
               1
     1  C   -0.192938
     2  C   -0.336728
     3  C   -0.336702
     4  C   -0.192972
     5  C   -0.188248
     6  C   -0.188220
     7  H    0.174521
     8  H    0.174491
     9  H    0.185220
    10  H    0.169148
    11  H    0.169111
    12  H    0.185210
    13  H    0.189048
    14  H    0.189059
 Sum of Mulliken charges =  -0.00000

 Dipole moment (field-independent basis, Debye):
    X=             -0.3446    Y=             -0.0017    Z=             -0.0000  Tot=              0.3446
 Quadrupole moment (field-independent basis, Debye-Ang):
   XX=            -34.5005   YY=            -34.8266   ZZ=            -39.3815
   XY=              0.0010   XZ=             -0.0036   YZ=              0.5389

  Exact polarizability:  67.300   0.010  64.892  -0.012   1.310  33.696
 Approx polarizability:  59.519   0.020  55.117  -0.014   1.452  34.321

                      1                      2                      3
                      A                      A                      A
 Frequencies --    198.8715               332.6655               518.5989
 Red. masses --      1.7864                 2.2418                 2.8800
 Frc consts  --      0.0416                 0.1462                 0.4564
 IR Inten    --      0.2629                 0.5802                 5.0308
 Raman Activ --      1.4686                 5.9918                 1.8233

                      4                      5                      6
                      A                      A                      A
 Frequencies --    558.8546               609.4652               745.3544
 Red. masses --      2.0904                 5.4859                 1.2934
 Frc consts  --      0.3847                 1.2006                 0.4234
 IR Inten    --      0.0606                 0.2734                59.8091
 Raman Activ --      1.5446                 4.3073                 3.2297

                      7                      8                      9
                      A                      A                      A
 Frequencies --    836.6533               865.7615               908.5488
 Red. masses --      1.5628                 1.5662                 3.0418
 Frc consts  --      0.6445                 0.6917                 1.4794
 IR Inten    --     21.6303                 1.2090                 0.4553
 Raman Activ --      2.4989                11.8917                18.5970

                     10                     11                     12
                      A                      A                      A
 Frequencies --    997.2148              1019.8460              1081.7402
 Red. masses --      2.2784                 2.7381                 2.6562
 Frc consts  --      1.3349                 1.6779                 1.8313
 IR Inten    --      5.2517                 0.5963                 6.2349
 Raman Activ --      0.4612                 9.1550                 1.2066

                     13                     14                     15
                      A                      A                      A
 Frequencies --   1105.8842              1110.6029              1143.4718
 Red. masses --      1.2648                 1.4283                 1.8181
 Frc consts  --      0.9113                 1.0380                 1.4006
 IR Inten    --      0.1908                 0.6175                 0.1403
 Raman Activ --      3.1607                 0.6493                 2.4221

                     16                     17                     18
                      A                      A                      A
 Frequencies --   1159.9245              1277.5267              1304.9732
 Red. masses --      1.8498                 1.0348                 1.1282
 Frc consts  --      1.4663                 0.9950                 1.1320
 IR Inten    --      2.5474                 0.0026                 1.8914
 Raman Activ --      6.8853                 2.7850                15.6803

                     19                     20                     21
                      A                      A                      A
 Frequencies --   1307.5020              1387.3516              1484.8350
 Red. masses --      1.1254                 1.1855                 1.2750
 Frc consts  --      1.1336                 1.3443                 1.6563
 IR Inten    --      4.9045                 5.2512                 0.6725
 Raman Activ --     12.9315                15.3473                 0.1580

                     22                     23                     24
                      A                      A                      A
 Frequencies --   1508.3326              1541.2218              1570.7733
 Red. masses --      1.6228                 1.5665                 1.6503
 Frc consts  --      2.1752                 2.1923                 2.3991
 IR Inten    --      2.7036                 1.9241                 0.7326
 Raman Activ --      3.8351                 0.2319                 7.7141

                     25                     26                     27
                      A                      A                      A
 Frequencies --   1621.7640              1636.8527              1828.3636
 Red. masses --      1.0869                 1.1100                 7.2766
 Frc consts  --      1.6842                 1.7523                14.3319
 IR Inten    --      0.9334                 0.5977                 2.1806
 Raman Activ --     22.8623                12.3139                96.0900

                     28                     29                     30
                      A                      A                      A
 Frequencies --   1880.0548              3164.4235              3171.7593
 Red. masses --      5.4264                 1.0772                 1.0672
 Frc consts  --     11.3006                 6.3553                 6.3256
 IR Inten    --      0.6317                17.0474                70.0087
 Raman Activ --      9.0492               186.4439                33.4362

                     31                     32                     33
                      A                      A                      A
 Frequencies --   3237.0954              3238.2690              3341.5353
 Red. masses --      1.0872                 1.0970                 1.0852
 Frc consts  --      6.7125                 6.7778                 7.1392
 IR Inten    --     58.7152                42.8076                 0.9271
 Raman Activ --    115.5308                94.1270                42.1087

                     34                     35                     36
                      A                      A                      A
 Frequencies --   3349.0890              3366.1518              3376.8651
 Red. masses --      1.0873                 1.0991                 1.1001
 Frc consts  --      7.1857                 7.3377                 7.3909
 IR Inten    --      9.7631                69.4005                26.2481
 Raman Activ --    130.5179                30.6679               255.3432

 - Thermochemistry -
 -------------------
 Temperature   298.150 Kelvin.  Pressure   1.00000 Atm.
 Atom     1 has atomic number  6 and mass  12.00000

 Molecular mass:    80.06260 amu.
 Principal axes and moments of inertia in atomic units:
                           1         2         3
     Eigenvalues --   353.74044 354.12103 668.23687
           X           -0.06836   0.99766  -0.00002
           Y            0.99766   0.06836   0.00183
           Z           -0.00183  -0.00011   1.00000
 This molecule is an asymmetric top.
 Rotational symmetry number  1.
 Rotational temperatures (Kelvin)      0.24485     0.24459     0.12962
 Rotational constants (GHZ):           5.10188     5.09640     2.70075
 Zero-point vibrational energy     345650.2 (Joules/Mol)
                                   82.61238 (Kcal/Mol)
 Warning -- explicit consideration of   5 degrees of freedom as
           vibrations may cause significant error
 Vibrational temperatures:    286.13   478.63   746.15   804.07   876.88
          (Kelvin)           1072.40  1203.76  1245.64  1307.20  1434.77
                             1467.33  1556.38  1591.12  1597.91  1645.20
                             1668.87  1838.08  1877.57  1881.20  1996.09
                             2136.35  2170.15  2217.47  2259.99  2333.36
                             2355.07  2630.61  2704.98  4552.90  4563.45
                             4657.46  4659.15  4807.72  4818.59  4843.14
                             4858.56

 Zero-point correction=                           0.131651 (Hartree/Particle)
 Thermal correction to Energy=                    0.136509
 Thermal correction to Enthalpy=                  0.137454
 Thermal correction to Gibbs Free Energy=         0.103571
 Sum of electronic and zero-point Energies=           -231.700246
 Sum of electronic and thermal Energies=              -231.695388
 Sum of electronic and thermal Enthalpies=            -231.694444
 Sum of electronic and thermal Free Energies=         -231.728327

                     E (Thermal)             CV                S
                      KCal/Mol        Cal/Mol-Kelvin    Cal/Mol-Kelvin
 Total                   85.661             18.156             71.312
 Electronic               0.000              0.000              0.000
 Translational            0.889              2.981             39.055
 Rotational               0.889              2.981             25.929
 Vibrational             83.883             12.194              6.328
 Vibration     1          0.637              1.841              2.144
 Vibration     2          0.715              1.610              1.247
 Vibration     3          0.874              1.209              0.613
 Vibration     4          0.914              1.120              0.526
 Vibration     5          0.968              1.012              0.434

                           ! Non-Optimized Parameters !
 Normal termination of Gaussian 16 at Tue Oct 27 11:26:06 2020.
