 Gaussian 16, Revision A.03,
 Gaussian 16:  ES64L-G16RevA.03 25-Dec-2016

 -------------------
 # RHF/6-31G(d) Freq
 -------------------

 ------------------------
 Formaldehyde Frequencies
 ------------------------
 Symbolic Z-matrix:
 Charge =  0 Multiplicity = 1

                         Standard orientation:
 ---------------------------------------------------------------------
 Center     Atomic      Atomic             Coordinates (Angstroms)
 Number     Number       Type             X           Y           Z
 ---------------------------------------------------------------------
      1          8           0        0.000000    0.000000    0.677503
      2          6           0       -0.000000   -0.000000   -0.541951
      3          1           0       -0.936511    0.070115   -1.084159
      4          1           0        0.936511   -0.070115   -1.084159
 ---------------------------------------------------------------------

 SCF Done:  E(RHF) =  -113.863819945     A.U. after   11 cycles

 The electronic state is 1-A.
 Alpha  occ. eigenvalues --  -20.58216 -11.33935  -1.39276  -0.87259  -0.69678
 Alpha  occ. eigenvalues --   -0.63954  -0.52323  -0.44037
 Alpha virt. eigenvalues --    0.13588   0.24840   0.33350   0.37335   0.73655
 Alpha virt. eigenvalues --    0.80867   0.84591   0.94773   1.10437   1.10612
 Alpha virt. eigenvalues --    1.13946   1.27151   1.33540   1.62080   1.78191

 Mulliken charges:
               1
     1  O   -0.439992
     2  C    0.129720
     3  H    0.155136
     4  H    0.155136
 Sum of Mulliken charges =  -0.00000

 Dipole moment (field-independent basis, Debye):
    X=              0.0000    Y=             -0.0000    Z=             -2.8425  Tot=              2.8425
 Quadrupole moment (field-independent basis, Debye-Ang):
   XX=            -11.3198   YY=            -11.5353   ZZ=            -11.8972
   XY=             -0.0162   XZ=             -0.0000   YZ=              0.0000

  Exact polarizability:  12.655  -0.455   6.609  -0.000   0.000  18.062
 Approx polarizability:   9.985  -0.272   6.374  -0.000   0.000  16.717

                      1                      2                      3
                      B                      B                      A
 Frequencies --   1305.8945              1369.1122              1626.3129
 Red. masses --      1.3445                 1.3173                 1.2172
 Frc consts  --      1.3509                 1.4549                 1.8968
 IR Inten    --      1.7038                18.1057                25.9795
 Raman Activ --      0.2525                 5.1418                15.3784

                      4                      5                      6
                      A                      A                      B
 Frequencies --   1830.8557              3218.1909              3331.2224
 Red. masses --      4.6143                 1.0430                 1.1243
 Frc consts  --      9.1130                 6.3646                 7.3512
 IR Inten    --    108.9855                31.8247                88.5731
 Raman Activ --      6.9608               130.5434                48.9831

 - Thermochemistry -
 -------------------
 Temperature   298.150 Kelvin.  Pressure   1.00000 Atm.
 Atom     1 has atomic number  8 and mass  15.99491

 Molecular mass:    30.01056 amu.
 Principal axes and moments of inertia in atomic units:
                           1         2         3
     Eigenvalues --     6.34843  46.71611  53.06454
           X           -0.00000   0.99721   0.07466
           Y            0.00000  -0.07466   0.99721
           Z            1.00000   0.00000  -0.00000
 This molecule is an asymmetric top.
 Rotational symmetry number  2.
 Rotational temperatures (Kelvin)     13.64337     1.85405     1.63224
 Rotational constants (GHZ):         284.28167    38.63209    34.01031
 Zero-point vibrational energy      75852.7 (Joules/Mol)
                                   18.12924 (Kcal/Mol)
 Vibrational temperatures:   1878.89  1969.85  2339.90  2634.19  4630.26
          (Kelvin)           4792.89

 Zero-point correction=                           0.028891 (Hartree/Particle)
 Thermal correction to Energy=                    0.031747
 Thermal correction to Enthalpy=                  0.032691
 Thermal correction to Gibbs Free Energy=         0.007882
 Sum of electronic and zero-point Energies=           -113.834929
 Sum of electronic and thermal Energies=              -113.832073
 Sum of electronic and thermal Enthalpies=            -113.831129
 Sum of electronic and thermal Free Energies=         -113.855938

                     E (Thermal)             CV                S
                      KCal/Mol        Cal/Mol-Kelvin    Cal/Mol-Kelvin
 Total                   19.921              6.295             52.215
 Electronic               0.000              0.000              0.000
 Translational            0.889              2.981             36.130
 Rotational               0.889              2.981             16.027
 Vibrational             18.144              0.333              0.057

 Normal termination of Gaussian 16 at Sun Oct 25 19:01:04 2020.
